 Gaussian 09, Revision E.01,
 Gaussian 09:  ES64L-G09RevE.01 30-Nov-2015

 ----------------------------------------------------------------------
 # 6-311g(d) b3lyp empiricaldispersion=gd3 SCRF=(smd, Solvent=acetonitr
 ile) Int=UltraFine nosymm scf=(maxcycle=1600, xqc) Temperature=273.15
 Pop=Reg
 ----------------------------------------------------------------------

 ----------
 tBu-dipolo
 ----------
 Symbolic Z-matrix:
 Charge =  0 Multiplicity = 1

                          Input orientation:
 ---------------------------------------------------------------------
 Center     Atomic      Atomic             Coordinates (Angstroms)
 Number     Number       Type             X           Y           Z
 ---------------------------------------------------------------------
      1          6           0       -1.088023   -0.218805   -0.288920
      2          6           0       -0.177817    0.138892    0.896477
      3          8           0        0.469004    1.171377    0.967076
      4          6           0       -0.221483   -0.764239    2.049806
      5          7           0        0.538064   -1.658382    2.361470
      6          6           0        1.285693   -2.608158    2.758868
      7          1           0        1.049403   -3.626299    2.469528
      8          1           0        2.148778   -2.382629    3.375512
      9          6           0       -2.506144    0.288129    0.053295
     10          1           0       -2.509888    1.369188    0.217712
     11          1           0       -3.183825    0.066983   -0.776729
     12          1           0       -2.899006   -0.197095    0.950495
     13          6           0       -0.565753    0.494850   -1.542306
     14          1           0       -1.230748    0.293073   -2.386553
     15          1           0       -0.518711    1.574593   -1.391815
     16          1           0        0.436572    0.147029   -1.808268
     17          6           0       -1.117703   -1.739711   -0.513057
     18          1           0       -0.114988   -2.135067   -0.699898
     19          1           0       -1.539950   -2.273528    0.342898
     20          1           0       -1.739538   -1.970977   -1.382023
 ---------------------------------------------------------------------

 SCF Done:  E(RB3LYP) =  -403.388444120     A.U. after   14 cycles

 Alpha  occ. eigenvalues --  -19.10660 -14.39348 -10.26686 -10.21871 -10.21249
 Alpha  occ. eigenvalues --  -10.19010 -10.15644 -10.15455 -10.15077  -1.04636
 Alpha  occ. eigenvalues --   -0.98767  -0.82237  -0.78403  -0.68688  -0.68617
 Alpha  occ. eigenvalues --   -0.65480  -0.56831  -0.53458  -0.49621  -0.47968
 Alpha  occ. eigenvalues --   -0.45694  -0.45184  -0.43107  -0.42326  -0.39371
 Alpha  occ. eigenvalues --   -0.38450  -0.37247  -0.36641  -0.36442  -0.33533
 Alpha  occ. eigenvalues --   -0.33256  -0.32916  -0.26759  -0.21738
 Alpha virt. eigenvalues --   -0.03329  -0.02125   0.00559   0.05326   0.07199
 Alpha virt. eigenvalues --    0.09718   0.10239   0.10906   0.11606   0.11857
 Alpha virt. eigenvalues --    0.13717   0.16051   0.16295   0.17511   0.17850

 Mulliken charges:
               1
     1  C   -0.154349
     2  C    0.315811
     3  O   -0.364805
     4  C    0.018760
     5  N   -0.106434
     6  C   -0.385758
     7  H    0.266531
     8  H    0.267261
     9  C   -0.613853
    10  H    0.224066
    11  H    0.228473
    12  H    0.225304
    13  C   -0.619335
    14  H    0.223094
    15  H    0.218090
    16  H    0.218618
    17  C   -0.648301
    18  H    0.230799
    19  H    0.226594
    20  H    0.229433
 Sum of Mulliken charges =  -0.00000

 Dipole moment (field-independent basis, Debye):
    X=             -0.2051    Y=             -4.3862    Z=             -0.6840  Tot=              4.4439
 Quadrupole moment (field-independent basis, Debye-Ang):
   XX=            -52.3802   YY=            -50.5014   ZZ=            -54.4737
   XY=             -4.9967   XZ=              5.6817   YZ=             -7.1051

 Normal termination of Gaussian 09 at Sun Nov 17 22:32:50 2019.
