 Gaussian 09, Revision E.01,
 Gaussian 09:  EM64L-G09RevE.01 30-Nov-2015

 ----------------------------------------------------------------------
 # 6-311g(d) b3lyp empiricaldispersion=gd3 SCRF=(smd, Solvent=acetonitr
 ile) Int=UltraFine nosymm scf=(maxcycle=1600, xqc) Temperature=273.15
 Pop=Reg
 ----------------------------------------------------------------------

 --------
 s-cis_MA
 --------
 Symbolic Z-matrix:
 Charge =  0 Multiplicity = 1

                          Input orientation:
 ---------------------------------------------------------------------
 Center     Atomic      Atomic             Coordinates (Angstroms)
 Number     Number       Type             X           Y           Z
 ---------------------------------------------------------------------
      1          6           0        1.039214    1.579005    1.239506
      2          1           0        1.987731    1.053020    1.229579
      3          1           0        0.507944    1.634627    2.184709
      4          6           0        0.539937    2.136492    0.137968
      5          1           0        1.056776    2.091065   -0.814691
      6          6           0       -0.758979    2.853652    0.163011
      7          8           0       -1.470270    2.998313    1.134451
      8          8           0       -1.058729    3.336535   -1.057153
      9          6           0       -2.304146    4.056028   -1.165559
     10          1           0       -2.301388    4.927524   -0.508873
     11          1           0       -2.372528    4.366515   -2.205772
     12          1           0       -3.143857    3.408824   -0.906929
 ---------------------------------------------------------------------

 SCF Done:  E(RB3LYP) =  -306.560407539     A.U. after   12 cycles

 Alpha  occ. eigenvalues --  -19.16242 -19.10284 -10.29798 -10.21246 -10.18369
 Alpha  occ. eigenvalues --  -10.18257  -1.10493  -1.01694  -0.79581  -0.72655
 Alpha  occ. eigenvalues --   -0.62187  -0.54979  -0.51550  -0.48056  -0.47944
 Alpha  occ. eigenvalues --   -0.44643  -0.41520  -0.40093  -0.38150  -0.35641
 Alpha  occ. eigenvalues --   -0.30619  -0.28677  -0.28206
 Alpha virt. eigenvalues --   -0.04905   0.06578   0.07933   0.08020   0.09723
 Alpha virt. eigenvalues --    0.11295   0.12211   0.13077   0.14896   0.24648
 Alpha virt. eigenvalues --    0.26837   0.27595   0.29960   0.31845   0.34101

 Mulliken charges:
               1
     1  C   -0.392658
     2  H    0.250559
     3  H    0.237687
     4  C   -0.300118
     5  H    0.237784
     6  C    0.433443
     7  O   -0.389448
     8  O   -0.321320
     9  C   -0.461705
    10  H    0.233115
    11  H    0.239560
    12  H    0.233102
 Sum of Mulliken charges =  -0.00000

 Dipole moment (field-independent basis, Debye):
    X=              0.8922    Y=             -0.0543    Z=             -1.7162  Tot=              1.9350
 Quadrupole moment (field-independent basis, Debye-Ang):
   XX=            -31.6018   YY=            -33.2941   ZZ=            -36.1021
   XY=             -2.0686   XZ=              6.3811   YZ=             -7.8340

 Normal termination of Gaussian 09 at Thu Nov 14 18:59:08 2019.
